# Declared CP2K evidence excerpt
# Generated from the unpublished accepted input/output pair by extract_cp2k_output_excerpt.py.
# This is not a complete CP2K output or scheduler log.

[selected input settings]
RUN_TYPE ENERGY
CHARGE 0
LSD
MULTIPLICITY 1
CUTOFF 400
REL_CUTOFF 50
NGRIDS 4
TYPE DFTD3(BJ)
CALCULATE_C9_TERM .FALSE.
PERIODIC XYZ

[selected output evidence]
CP2K| version string:                                       CP2K version 2023.1
GLOBAL| Run type                                                         ENERGY
CELL| Periodicity                                                           XYZ
PW_GRID| Cutoff [a.u.]                                                    200.0
POISSON| Solver                                                        PERIODIC
POISSON| Periodicity                                                        XYZ
*** SCF run converged in    79 steps ***
ENERGY| Total FORCE_EVAL ( QS ) energy [a.u.]:            -1449.805337296982543
**** **** ******  **  PROGRAM ENDED AT                 2026-06-30 14:06:40.432
